Default Title                              
        SP                           RHF                         6-31G
Number of atoms                            I                4
Charge                                     I                0
Multiplicity                               I                1
IOpCl                                      I                0
IROHF                                      I                0
Number of electrons                        I               18
Number of alpha electrons                  I                9
Number of beta electrons                   I                9
Number of basis functions                  I               22
Number of independent functions            I               22
Atomic numbers                             I   N=           4
           8           8           1           1
Nuclear charges                            R   N=           4
  8.00000000E+00  8.00000000E+00  1.00000000E+00  1.00000000E+00
Current cartesian coordinates              R   N=          12
  0.00000000E+00  0.00000000E+00  0.00000000E+00  0.00000000E+00  0.00000000E+00
  2.83458919E+00  1.88972612E+00  0.00000000E+00  0.00000000E+00  0.00000000E+00
  1.32280829E+00  1.88972612E+00
Integer atomic weights                     I   N=           4
          16          16           1           1
Real atomic weights                        R   N=           4
  1.60000000E+01  1.60000000E+01  1.00000000E+00  1.00000000E+00
Number of primitive shells                 I               36
Number of contracted shells                I               14
Pure/Cartesian d shells                    I                1
Pure/Cartesian f shells                    I                1
Highest angular momentum                   I                1
Largest degree of contraction              I                6
Shell types                                I   N=          14
           0           0           0           1           1           0
           0           0           1           1           0           0
           0           0
Number of primitives per shell             I   N=          14
           6           3           1           3           1           6
           3           1           3           1           3           1
           3           1
Shell to atom map                          I   N=          14
           1           1           1           1           1           2
           2           2           2           2           3           3
           4           4
Primitive exponents                        R   N=          36
  5.48467170E+03  8.25234950E+02  1.88046960E+02  5.29645000E+01  1.68975700E+01
  5.79963530E+00  1.55396160E+01  3.59993360E+00  1.01376180E+00  2.70005800E-01
  1.55396160E+01  3.59993360E+00  1.01376180E+00  2.70005800E-01  5.48467170E+03
  8.25234950E+02  1.88046960E+02  5.29645000E+01  1.68975700E+01  5.79963530E+00
  1.55396160E+01  3.59993360E+00  1.01376180E+00  2.70005800E-01  1.55396160E+01
  3.59993360E+00  1.01376180E+00  2.70005800E-01  1.87311370E+01  2.82539370E+00
  6.40121700E-01  1.61277800E-01  1.87311370E+01  2.82539370E+00  6.40121700E-01
  1.61277800E-01
Contraction coefficients                   R   N=          36
  1.83110000E-03  1.39501000E-02  6.84451000E-02  2.32714300E-01  4.70193000E-01
  3.58520900E-01 -1.10777500E-01 -1.48026300E-01  1.13076700E+00  1.00000000E+00
  7.08743000E-02  3.39752800E-01  7.27158600E-01  1.00000000E+00  1.83110000E-03
  1.39501000E-02  6.84451000E-02  2.32714300E-01  4.70193000E-01  3.58520900E-01
 -1.10777500E-01 -1.48026300E-01  1.13076700E+00  1.00000000E+00  7.08743000E-02
  3.39752800E-01  7.27158600E-01  1.00000000E+00  3.34946000E-02  2.34726950E-01
  8.13757330E-01  1.00000000E+00  3.34946000E-02  2.34726950E-01  8.13757330E-01
  1.00000000E+00
Coordinates of each shell                  R   N=          42
  0.00000000E+00  0.00000000E+00  0.00000000E+00  0.00000000E+00  0.00000000E+00
  0.00000000E+00  0.00000000E+00  0.00000000E+00  0.00000000E+00  0.00000000E+00
  0.00000000E+00  0.00000000E+00  0.00000000E+00  0.00000000E+00  0.00000000E+00
  0.00000000E+00  0.00000000E+00  2.83458919E+00  0.00000000E+00  0.00000000E+00
  2.83458919E+00  0.00000000E+00  0.00000000E+00  2.83458919E+00  0.00000000E+00
  0.00000000E+00  2.83458919E+00  0.00000000E+00  0.00000000E+00  2.83458919E+00
  1.88972612E+00  0.00000000E+00  0.00000000E+00  1.88972612E+00  0.00000000E+00
  0.00000000E+00  0.00000000E+00  1.32280829E+00  1.88972612E+00  0.00000000E+00
  1.32280829E+00  1.88972612E+00
SCF Energy                                 R     -1.505850337808383E+02
Total Energy                               R     -1.505850337808383E+02
Alpha Orbital Energies                     R   N=          22
 -2.06710278E+01 -2.06357146E+01 -1.58082989E+00 -1.23932586E+00 -7.68825125E-01
 -7.25511255E-01 -5.89611686E-01 -5.29433999E-01 -5.19198449E-01  1.55664403E-01
  1.90455350E-01  3.09896915E-01  1.01629048E+00  1.08030203E+00  1.11567387E+00
  1.12472131E+00  1.21425254E+00  1.25020306E+00  1.30672724E+00  1.34263826E+00
  1.70655407E+00  1.87645253E+00
Alpha MO coefficients                      R   N=         484
  9.95854917E-01 -3.17519198E-03 -1.41864842E-01 -1.66671470E-01 -3.10424815E-03
  6.25737214E-02  2.38089508E-02 -2.39076557E-02  1.93812390E-02  7.67571226E-02
  3.13741606E-02  1.53754389E-02  3.02859049E-02 -1.62816347E-02 -1.52364917E-03
 -4.07960110E-02  4.86342501E-02 -1.43815918E-02  3.49783924E-02 -1.76322123E-02
  9.65140782E-03  3.54450324E-02  2.20894477E-02  1.82461786E-04  3.07429267E-01
  3.72339924E-01  6.57472602E-03 -1.50653038E-01 -8.12876722E-02  5.01460731E-02
 -7.10215464E-02 -1.62253996E-01 -1.45625232E-02 -4.15639587E-02 -1.64264118E-01
 -2.02871216E-02  5.44503557E-02  3.90604169E-01 -3.53713783E-01  9.28923353E-02
 -5.17049372E-01  2.38582510E-01  5.02344550E-01 -1.54875669E+00 -8.69984491E-03
  5.17217491E-04  3.12423255E-01  4.58536980E-01  2.69499000E-02 -2.28039585E-01
 -3.12352061E-02  1.22224879E-01 -1.60942286E-03 -7.29389654E-01 -6.13289044E-01
 -1.90007320E-01  1.23247755E-01  6.09477427E-01 -1.65262060E-01 -3.22928955E-01
  1.77050181E-02 -1.55175874E-02  8.57414308E-01 -4.81382286E-01 -1.34017513E+00
  2.52063382E+00  1.58147155E-03  3.56695227E-06  4.59213892E-02  9.52570534E-02
 -1.67087182E-01  4.45338280E-01 -2.31402533E-03 -2.25903701E-01  1.41845601E-01
 -1.12368286E-01 -2.51072168E-01  1.50835645E-01 -3.14410005E-01 -3.44337849E-01
 -1.69618806E-01 -2.13582829E-01  2.39455947E-01  4.88288427E-01 -3.58644311E-01
 -5.29106505E-01  1.02476782E-02 -1.10893877E-01  3.13426899E-04  1.09574826E-04
  2.70751880E-02  2.30873764E-03  2.96392750E-01  1.19136044E-01 -2.16199518E-01
  3.06114965E-01  4.45634999E-01  3.07210713E-02 -5.49660534E-02 -1.17332331E-01
 -1.86507291E-02 -2.94591691E-01 -7.02367450E-01  2.08165038E-01  1.07686485E-01
 -4.90263441E-01 -2.39085823E-02 -2.40820268E-02 -1.55260343E-01 -1.02981588E-01
  1.58465372E-03  2.66845081E-04  9.79191949E-02 -5.82157447E-02  7.11162977E-02
  1.40410341E-02  4.02635140E-01 -1.87147677E-02  2.01266719E-01 -3.82546158E-01
  2.51569549E-01 -1.18360307E-01 -2.74382450E-01 -4.41939236E-01  2.26732416E-01
 -1.79830673E-01  1.42855097E-01 -4.32455393E-02  6.57864748E-01  1.04460369E-01
 -8.08836821E-02 -3.94953467E-01 -1.76660747E-03 -6.15184784E-05  3.35668099E-02
  5.71893898E-02 -8.93532065E-02  2.73768325E-01  1.65153568E-02 -1.43315217E-01
  1.02007831E-01 -2.54701719E-01 -4.70143665E-01  3.25716408E-01 -1.61112456E-01
  3.26222726E-01  1.86790315E-01  2.58306724E-01 -5.91762320E-01 -7.16209533E-01
  4.93541631E-01  9.39259904E-01 -1.63303870E-01  6.66108191E-01 -4.81379508E-04
 -5.79240076E-04  2.25965967E-02  1.19933848E-02  1.88477398E-01  7.56340515E-02
 -1.35701834E-01  2.30421632E-01  3.47022008E-01  5.80858679E-02 -1.06935528E-01
 -2.67418240E-01  2.57504042E-02  3.27147601E-01  7.85319160E-01 -2.66618627E-01
 -1.11594579E-01  7.46227497E-01  1.37462876E-02  1.06414064E-01  3.49354077E-01
  2.94450687E-01 -2.13322756E-03  8.88522150E-04  5.13882277E-02  1.70963276E-02
  4.02860622E-02  1.53032741E-02  3.08518134E-01  1.72630130E-04  1.94746145E-01
 -5.14281905E-01  3.19910918E-01 -2.91868951E-01  2.88032451E-01  8.79657935E-01
 -4.16939040E-01  1.86202337E-01 -4.50572097E-01  3.24708356E-01 -8.05937191E-01
 -4.19416125E-01 -7.94552633E-01  9.67920281E-01  3.14650697E-03  9.95818850E-01
 -1.46141692E-01  1.53592951E-01  8.08816151E-02  1.34619673E-02  4.48930720E-02
 -9.82947216E-03 -8.49901939E-03 -3.30574112E-02  5.20310898E-02  4.44161633E-02
 -2.76686121E-02  5.18142531E-02 -4.13437681E-02 -1.63386650E-02 -7.86786430E-04
 -1.13035234E-02  2.20481293E-02 -2.80441682E-02  4.54726157E-02  2.05832033E-02
  3.15712776E-04  2.20324208E-02  3.20567173E-01 -3.51034420E-01 -1.82459916E-01
 -2.72828068E-02 -1.26581384E-01  1.93457401E-02  2.05573103E-02  8.78786999E-02
 -1.07941253E-01 -3.04585107E-02  1.40730970E-01 -1.00295082E-01  3.18317222E-01
 -3.23741873E-03 -9.33677670E-03  1.11227354E-02 -3.38831175E-01  1.73881778E-01
 -1.66537606E+00 -3.36359590E-01  3.30643003E-04 -8.63557056E-03  2.83150836E-01
 -3.97498170E-01 -3.31499282E-01 -7.04483026E-02 -1.26580090E-01  3.89903043E-02
  6.89341177E-03  2.53800275E-01 -5.98712798E-01 -9.95076367E-01 -1.61471337E-02
 -6.59473817E-01  1.16496449E-01  1.70597731E-01  3.12708405E-02  1.19496631E-01
  5.99740896E-01 -1.14321264E-01  3.03167869E+00  3.01231773E-01  3.00652685E-05
  1.10815043E-04  8.45013045E-03  2.26224654E-03 -7.95349690E-02  2.39346983E-01
  1.45625419E-01  5.25130222E-01 -3.00514000E-01 -2.42487369E-02 -1.70324741E-02
  1.09427738E-02  1.38318737E-01 -2.21882355E-01 -1.31768154E-01 -6.80036679E-01
 -5.69791853E-01 -9.80414285E-02 -1.20379057E-01  5.91990876E-02  3.35497031E-02
 -1.62045182E-02  4.31521856E-05  1.30756005E-03  7.34560999E-02 -9.70058136E-02
  3.63103122E-01  1.71155035E-01 -1.12029528E-01 -1.99945509E-01 -3.53655144E-01
 -1.08587498E-01 -8.92626377E-03 -2.22338237E-01 -1.06044453E-01  1.27429356E-01
 -3.66950189E-01 -2.63798058E-01  3.60554139E-01  3.18104809E-01 -6.96981514E-02
  7.22605487E-01 -6.37427944E-02 -3.82964582E-02 -2.55037377E-04 -1.99279905E-03
 -1.14108134E-01 -2.74886855E-03 -1.70794544E-01 -7.58187542E-04 -3.59851134E-01
  5.75450379E-02 -7.11890245E-03 -4.20616827E-01  2.24149932E-01 -6.88787698E-02
 -9.21249077E-02 -1.59830795E-01  3.97618831E-01 -1.84094346E-01  3.82958593E-01
 -5.08153119E-01 -5.03039307E-01  1.14458956E-01  2.55983176E-01  2.06134913E-01
  1.61968098E-05 -4.76817033E-05  8.66775683E-03 -2.95826887E-03 -5.26785451E-02
  1.61786342E-01  1.12086411E-01  3.87651721E-01 -2.19637324E-01 -4.91628150E-02
 -1.99062388E-02  2.81857390E-02 -3.63521517E-02  1.98220552E-01  1.17719559E-01
  7.14910923E-01  8.17952206E-01  1.98643054E-01  1.24052096E-01 -1.88162526E-01
 -2.30240261E-02 -5.93282406E-02 -7.61262132E-04 -1.50801847E-03  2.93415145E-02
 -3.89071533E-02  1.78219309E-01  9.66196080E-02 -5.62610078E-02 -1.39683575E-01
 -2.37121267E-01 -1.31894633E-01 -8.68935531E-02 -5.51168784E-01  3.37926745E-01
 -6.95531271E-01  3.05457199E-01  6.36251912E-01 -5.75538389E-01 -5.13116534E-02
  4.68508933E-02 -7.22332145E-01  3.91391958E-01  5.75425173E-01 -9.10849531E-04
  2.35604563E-03 -3.63159517E-02  2.75583369E-02 -6.69298626E-02  1.24894241E-02
 -2.42976602E-01  3.44787681E-02  1.26824189E-02 -5.44661433E-01  3.68139306E-01
  3.20544604E-02 -1.15672770E-01  9.64632048E-01 -6.19686543E-01 -4.73243395E-02
 -5.48338584E-01  4.56854348E-01  4.55894940E-01 -5.96949360E-01 -1.28613124E+00
  1.54176423E-01  5.76938806E-04  3.58269274E-08  7.17398947E-02  1.28557314E-01
 -1.07561729E-01  2.23982068E-01 -5.26172551E-02 -1.31315735E-01  5.22732303E-02
  3.32957040E-02  1.10373529E-01 -7.46743922E-02  1.17190944E+00  6.32718136E-02
 -2.16110744E-02 -2.36509928E-01  5.14170798E-01 -3.78511331E-02  1.90409476E-01
 -1.75488524E-01  2.53205681E-01 -6.90502530E-01  1.85387831E-03  1.23419856E-04
 -1.55083681E-02 -5.06856910E-03 -5.69336538E-02  1.02176735E-01 -4.29529147E-02
 -5.84783871E-02  1.93061149E-02  7.83314360E-01  1.12234717E+00 -8.61283575E-01
 -8.70121934E-01 -1.17431765E-01 -3.36794045E-02  2.65624118E-03 -4.74067492E-01
  4.32459136E-01 -6.79336062E-01 -5.08167535E-01  2.81876274E-02 -2.83618769E-01
  4.85588622E-04 -2.65022369E-05  1.69788124E-01 -1.23498148E-01  2.60887133E-01
  8.62497584E-02  1.11531818E-02 -6.88409666E-02 -9.88748861E-02  8.43707540E-02
 -3.13288128E-02  8.89752536E-02 -4.56271750E-01  8.58207063E-01  8.33206994E-02
 -5.16490612E-01  1.64564430E-01 -6.87477055E-01  7.18917488E-02 -6.82067991E-01
 -2.11972864E-01 -5.75808095E-01  1.67588570E-03  3.42429558E-03 -5.34351022E-02
  6.92752471E-03  7.86326814E-02  3.59061753E-02 -1.24826716E-01  7.68003004E-03
 -5.89924263E-02 -7.15554285E-02  6.63238383E-01  2.14325192E+00  2.12828588E-01
 -2.81879693E-01 -4.00973927E-01  1.36099859E-01  3.14688238E-01 -4.72659668E-02
 -5.19089793E-02  1.09331735E+00 -9.51141433E-01 -8.22187312E-01
Total SCF Density                          R   N=         253
  2.09016258E+00 -1.95265214E-01 -2.94924518E-01  3.13273431E-02 -2.41669117E-03
  2.39624650E-02  1.43035609E-02 -7.09716408E-03 -6.37093866E-04 -6.33044538E-03
  1.81120347E-02  3.84953766E-02 -2.46857926E-03  2.12547568E-02  1.35995315E-02
 -2.57847317E-03  8.93152702E-03 -1.14600670E-02 -2.75611173E-02  2.44211770E-02
  3.12495239E-03  1.15754891E-02  5.41087379E-01  6.19804159E-01 -7.95675510E-02
 -1.10681799E-02 -8.22950803E-02 -5.20623373E-02 -1.62798758E-03 -3.76498414E-02
  1.49537942E-02 -3.88623671E-02 -8.15221838E-02  5.39638359E-03 -2.54716809E-02
 -8.95136152E-03  5.54117820E-03 -8.91633795E-03  3.46688588E-02  5.89271605E-02
 -4.63872222E-02 -4.77946132E-03 -7.96226453E-03  7.53171812E-01 -1.51625536E-01
  6.75711933E-02 -2.51770920E-02 -9.26179102E-02  6.44766322E-02  2.31603809E-02
  4.35551678E-02 -1.06422899E-01 -1.55945345E-01  1.41441653E-02 -1.42290916E-01
 -4.61087733E-02  1.45422555E-02 -8.16630252E-02  1.68621031E-02  2.57805003E-02
 -7.57140095E-02 -4.96554877E-02 -2.93338297E-02  6.17175006E-01 -8.89373317E-04
  5.03376929E-02  3.81284413E-01  3.70880526E-03  6.18796215E-02  2.64048138E-03
 -3.08359871E-03 -1.67654437E-02 -8.22183971E-02  9.89609134E-03  1.90418963E-02
 -7.60361837E-02  1.78817564E-02  2.45469475E-02  3.40924940E-01  1.39744821E-01
 -1.52926390E-02 -1.75065720E-02  8.83639442E-01  4.43631008E-02  1.03781002E-02
  6.40065382E-01  7.06619703E-02  1.11643105E-02 -1.40175344E-02 -1.15050200E-01
  1.04363182E-03 -1.29619584E-01  7.68677417E-02  8.87566874E-04 -1.42454360E-01
  9.89367435E-02 -1.69678552E-02 -1.02880381E-02  4.87318150E-02  5.84067266E-02
  4.42416186E-01  5.46135454E-02  5.37453618E-02  3.41052547E-01 -9.81906946E-04
 -1.74356501E-02 -4.80145353E-02 -2.65539806E-02 -1.42955826E-01 -3.41139317E-01
 -1.35685047E-02 -9.71913964E-02 -2.11338487E-01 -2.63400715E-02 -3.22980687E-02
  5.89179201E-02 -1.23624766E-01  2.37102357E-01  1.08905915E-02  5.64648451E-02
  3.10631388E-03 -6.49759762E-03 -1.97389753E-02 -6.09271789E-02  4.11931638E-03
 -7.69947971E-03 -5.39785118E-02  8.37913783E-03  4.19526636E-03  2.07944369E-01
  8.37741510E-02 -2.19780024E-03 -1.55533149E-02  4.67665288E-01  7.17434288E-02
  5.83531819E-03 -9.32703022E-03 -7.52382946E-02  5.69980607E-04 -1.43435489E-01
  4.95265240E-02  7.24538043E-04 -1.31484040E-01  6.63138740E-02 -1.02948262E-02
 -8.72221068E-03  1.27245691E-02  2.92924891E-02  2.75810123E-01  2.33038008E-02
 -6.46461623E-02 -8.87789297E-02 -2.51472355E-02 -1.68212002E-01 -2.50402649E-01
 -1.47549869E-02 -1.08117668E-01 -1.52766249E-01 -2.19680509E-03 -2.22389949E-02
  5.23255490E-03 -9.78185532E-02  2.09104114E+00 -1.99991567E-01 -2.89832927E-01
 -1.15893125E-04  1.45640046E-02 -3.24316443E-02 -1.52618243E-03  9.61989717E-03
 -9.43311187E-03  4.12594905E-03 -6.26057187E-03 -3.90533150E-02  2.79074098E-02
  5.54659367E-01  6.18880585E-01 -9.10629700E-03 -2.04999569E-02  8.40856851E-02
 -4.38010348E-03 -2.51579701E-02  4.45826276E-02 -6.84199492E-03  1.82282561E-02
  8.60988455E-02 -4.01514194E-02  7.41397786E-01  2.19336274E-02 -1.38263225E-01
  1.46432554E-01  1.82172656E-02 -8.41184983E-02  6.44743563E-02 -1.80196373E-02
  2.51767064E-02 -3.42412365E-04 -6.16314616E-02  9.01933005E-01 -5.09199989E-03
 -1.52270216E-02  6.57747523E-01 -2.35232574E-03 -2.60413948E-02 -5.85354007E-02
 -2.78481949E-02 -7.52733640E-03  1.09753558E-02  7.07092687E-01 -7.78759627E-02
 -5.80785796E-03  4.10535204E-01 -2.33224868E-02  1.14851819E-02  1.16895837E-02
  3.62851159E-01  1.26832732E-01  3.50117118E-01 -1.71394155E-02 -3.97091259E-02
  2.09629435E-01  4.13343562E-02  4.67668181E-02 -1.41858700E-01  7.67895467E-02
  4.80223016E-01 -3.52222180E-03 -2.30083961E-02 -5.22772829E-02 -2.46269022E-02
 -3.34334683E-03  6.25163650E-03  2.44756627E-01 -1.40307840E-02  1.69641157E-02
  1.09466417E-02  1.94097633E-01  7.11554553E-02  1.34215083E-01  3.97072093E-02
  2.83479019E-02 -6.45826849E-02  5.43403489E-02  2.12312618E-01  7.63898555E-02
 -1.83085144E-02 -1.76319950E-03  3.91771576E-02 -1.28181256E-02  7.52535794E-03
  2.68441737E-01  3.51912965E-02  5.90219708E-02