Default Title                              
        SP                           UHF                         6-31G
Number of atoms                            I                4
Charge                                     I                1
Multiplicity                               I                2
IOpCl                                      I                1
IROHF                                      I                1
Number of electrons                        I               17
Number of alpha electrons                  I                9
Number of beta electrons                   I                8
Number of basis functions                  I               22
Number of independent functions            I               22
Atomic numbers                             I   N=           4
           8           8           1           1
Nuclear charges                            R   N=           4
  8.00000000E+00  8.00000000E+00  1.00000000E+00  1.00000000E+00
Current cartesian coordinates              R   N=          12
  0.00000000E+00  0.00000000E+00  0.00000000E+00  0.00000000E+00  0.00000000E+00
  2.83458919E+00  1.88972612E+00  0.00000000E+00  0.00000000E+00  0.00000000E+00
  1.32280829E+00  1.88972612E+00
Integer atomic weights                     I   N=           4
          16          16           1           1
Real atomic weights                        R   N=           4
  1.60000000E+01  1.60000000E+01  1.00000000E+00  1.00000000E+00
Number of primitive shells                 I               36
Number of contracted shells                I               14
Pure/Cartesian d shells                    I                1
Pure/Cartesian f shells                    I                1
Highest angular momentum                   I                1
Largest degree of contraction              I                6
Shell types                                I   N=          14
           0           0           0           1           1           0
           0           0           1           1           0           0
           0           0
Number of primitives per shell             I   N=          14
           6           3           1           3           1           6
           3           1           3           1           3           1
           3           1
Shell to atom map                          I   N=          14
           1           1           1           1           1           2
           2           2           2           2           3           3
           4           4
Primitive exponents                        R   N=          36
  5.48467170E+03  8.25234950E+02  1.88046960E+02  5.29645000E+01  1.68975700E+01
  5.79963530E+00  1.55396160E+01  3.59993360E+00  1.01376180E+00  2.70005800E-01
  1.55396160E+01  3.59993360E+00  1.01376180E+00  2.70005800E-01  5.48467170E+03
  8.25234950E+02  1.88046960E+02  5.29645000E+01  1.68975700E+01  5.79963530E+00
  1.55396160E+01  3.59993360E+00  1.01376180E+00  2.70005800E-01  1.55396160E+01
  3.59993360E+00  1.01376180E+00  2.70005800E-01  1.87311370E+01  2.82539370E+00
  6.40121700E-01  1.61277800E-01  1.87311370E+01  2.82539370E+00  6.40121700E-01
  1.61277800E-01
Contraction coefficients                   R   N=          36
  1.83110000E-03  1.39501000E-02  6.84451000E-02  2.32714300E-01  4.70193000E-01
  3.58520900E-01 -1.10777500E-01 -1.48026300E-01  1.13076700E+00  1.00000000E+00
  7.08743000E-02  3.39752800E-01  7.27158600E-01  1.00000000E+00  1.83110000E-03
  1.39501000E-02  6.84451000E-02  2.32714300E-01  4.70193000E-01  3.58520900E-01
 -1.10777500E-01 -1.48026300E-01  1.13076700E+00  1.00000000E+00  7.08743000E-02
  3.39752800E-01  7.27158600E-01  1.00000000E+00  3.34946000E-02  2.34726950E-01
  8.13757330E-01  1.00000000E+00  3.34946000E-02  2.34726950E-01  8.13757330E-01
  1.00000000E+00
Coordinates of each shell                  R   N=          42
  0.00000000E+00  0.00000000E+00  0.00000000E+00  0.00000000E+00  0.00000000E+00
  0.00000000E+00  0.00000000E+00  0.00000000E+00  0.00000000E+00  0.00000000E+00
  0.00000000E+00  0.00000000E+00  0.00000000E+00  0.00000000E+00  0.00000000E+00
  0.00000000E+00  0.00000000E+00  2.83458919E+00  0.00000000E+00  0.00000000E+00
  2.83458919E+00  0.00000000E+00  0.00000000E+00  2.83458919E+00  0.00000000E+00
  0.00000000E+00  2.83458919E+00  0.00000000E+00  0.00000000E+00  2.83458919E+00
  1.88972612E+00  0.00000000E+00  0.00000000E+00  1.88972612E+00  0.00000000E+00
  0.00000000E+00  0.00000000E+00  1.32280829E+00  1.88972612E+00  0.00000000E+00
  1.32280829E+00  1.88972612E+00
SCF Energy                                 R     -1.501598893590969E+02
Total Energy                               R     -1.501598893590969E+02
Alpha Orbital Energies                     R   N=          22
 -2.11931070E+01 -2.10369752E+01 -2.05659627E+00 -1.69052678E+00 -1.23292082E+00
 -1.19563473E+00 -1.08879100E+00 -1.00697823E+00 -9.16006387E-01 -1.99515031E-01
 -1.40080953E-01  1.15303972E-02  6.29677968E-01  6.70073912E-01  7.20940500E-01
  7.77270214E-01  8.49440876E-01  8.71810540E-01  9.28154470E-01  1.00256216E+00
  1.34566634E+00  1.45198843E+00
Beta Orbital Energies                      R   N=          22
 -2.11260442E+01 -2.10440249E+01 -1.95307353E+00 -1.59382820E+00 -1.13847994E+00
 -1.05946804E+00 -9.81235210E-01 -9.15635681E-01 -3.41588745E-01 -2.16050390E-01
 -1.21956386E-01  2.45160277E-02  6.54015595E-01  7.42755465E-01  7.78616392E-01
  8.01993654E-01  8.71863002E-01  9.11503014E-01  9.50457158E-01  9.91600531E-01
  1.35543592E+00  1.50069167E+00
Alpha MO coefficients                      R   N=         484
  9.95441964E-01 -4.41569737E-04 -1.85915539E-01  1.36733530E-01  2.11921896E-03
  5.76383786E-02  1.47524895E-02  9.25769213E-03 -1.18961024E-02 -4.73942469E-02
  5.92279473E-02  1.44905467E-02  3.55911410E-03 -1.84877309E-02 -4.16904297E-02
 -2.78911490E-02  3.08397285E-02  4.12566856E-02 -6.64281495E-04  1.23354749E-02
  1.01168422E-02  2.86148254E-02  2.42692755E-02  3.00338091E-04  4.41040502E-01
 -3.34259525E-01 -1.45692140E-02 -1.59953302E-01 -5.35823067E-02 -9.16976002E-03
  3.18916603E-02  1.62535320E-01 -1.29962976E-01 -5.54296447E-02 -5.85088415E-02
  1.19651036E-01  2.55813732E-01  4.07111210E-01 -3.98371512E-01 -4.10527967E-01
 -1.32237341E-01 -3.30088609E-01  6.45367209E-01 -1.44521954E+00 -9.59166309E-03
  2.59042163E-04  3.96280394E-01 -3.67504281E-01  2.95566498E-02 -1.68665163E-01
  2.59897967E-02 -8.42722407E-02  2.90022223E-02  2.81572408E-01 -7.51727123E-01
 -1.80773309E-01  3.65582292E-01  1.95173676E-02  1.76081237E-01 -6.20824066E-01
  5.53478276E-01  3.01823298E-01  3.91268058E-01  8.58865782E-01 -1.60135378E+00
  2.35499920E+00  1.66354442E-03  5.25681291E-06  6.67249658E-02 -9.27066201E-02
 -4.15835743E-02  5.89266780E-01  5.45027311E-02  2.26130186E-02 -2.10080229E-01
 -8.69499693E-03 -2.96797765E-01  1.34459449E-01 -4.47518145E-01 -7.10656643E-02
 -1.74500474E-01 -2.58792923E-01 -5.81756876E-01  2.12056717E-01 -3.76518884E-01
  2.43950671E-01  1.99588197E-02 -1.08873294E-01  4.69999279E-05  1.06976542E-04
  2.12707838E-02  3.11080299E-02  6.01878364E-01  8.05126974E-02 -1.81929547E-01
 -3.92282535E-01  6.72365646E-03 -4.01039660E-02 -2.77024044E-02 -1.33399601E-01
 -3.01691675E-01 -7.28746245E-01  2.11242052E-01  1.06606680E-01  2.75380047E-01
 -3.25303095E-02 -1.06602477E-01 -2.44371136E-02 -1.10987495E-01 -1.20599485E-01
  1.54537378E-03  2.29648440E-04  1.21950553E-01  1.22522844E-01  7.99437396E-02
 -3.88089498E-02  6.33052432E-01 -1.98526013E-01 -6.65781882E-02  3.31405022E-01
  5.12730306E-02 -7.96613408E-02 -4.14779586E-01  1.55296336E-01 -4.61765492E-01
  5.49016886E-02  3.36914622E-01  1.46866377E-01  3.67281231E-01  1.12883712E-01
 -9.47338561E-03 -3.62349251E-01 -1.86717703E-03 -8.40515287E-05  4.90593050E-02
 -5.41038210E-02 -1.77684427E-02  3.01295064E-01  3.79255836E-02  1.31767838E-02
 -1.07026681E-01  5.41712206E-03 -4.61221278E-01  2.39841256E-01  1.65883287E-01
  2.50775885E-01  3.65621958E-01  3.72408580E-01  9.28996621E-01 -5.93370634E-01
  7.00400452E-01 -5.10061546E-01 -2.37452567E-01  6.62616323E-01 -3.93763913E-04
 -5.63950698E-04  2.08503310E-02  9.26591768E-03  3.07887827E-01  3.80855063E-02
 -8.88427826E-02 -2.29487113E-01  4.79766578E-03 -6.40181188E-02 -3.97386078E-02
 -2.03304322E-01  3.86384160E-01  9.64244802E-01 -2.83942476E-01 -1.92880072E-01
 -5.02457518E-01  7.46642340E-02  2.18784173E-01 -1.51775203E-02  2.79860774E-01
  3.45723621E-01 -2.31624485E-03  7.20262629E-04  6.38610189E-02  2.59864840E-03
  5.75857871E-02 -2.12277788E-02  3.83585409E-01 -1.45795176E-01 -4.21205499E-02
  3.35350788E-01  5.77470577E-02 -1.74568600E-01  7.05007064E-01 -1.46356424E-01
  9.31578185E-01 -3.29270350E-01 -7.03094802E-01 -3.57034039E-01 -4.70110427E-01
  2.48491415E-01 -9.45390809E-01  8.60193324E-01  4.29663263E-04  9.95941437E-01
 -1.03357436E-01 -1.76758347E-01  7.08459291E-02 -1.85096592E-02  8.23724256E-02
  3.88030301E-02  3.17278770E-03  2.15014306E-02  2.71756550E-02  5.49761384E-02
 -6.00017293E-03 -6.15273728E-03  5.52013563E-02 -4.37265815E-02  1.79825276E-02
  2.67912972E-03  5.59505473E-03  3.59617967E-02  4.13107195E-02  2.24916196E-02
  1.63524142E-04  2.15045686E-02  2.30137986E-01  4.12658018E-01 -1.67206650E-01
  4.70337783E-02 -2.15836641E-01 -8.54386619E-02 -1.51989919E-02 -5.63771215E-02
 -5.78324843E-02 -6.71243679E-02  1.23266010E-01  1.21059089E-01 -2.15293594E-01
  1.31736869E-01 -8.22565759E-02 -6.19839172E-02 -1.74270938E-01 -3.01906162E-01
 -1.62487070E+00 -5.25152786E-01  5.77515735E-04 -8.50644965E-03  1.70495932E-01
  4.13341938E-01 -2.56045950E-01  5.46817954E-02 -2.75723502E-01 -1.53748728E-01
  1.31880551E-02 -2.70135191E-01 -3.28172428E-01 -1.05781722E+00 -2.99299950E-01
  3.37716753E-02 -5.38014041E-01  3.76807167E-01  2.73329220E-02  1.17161692E-01
  2.64093089E-01  3.07324771E-01  3.01148765E+00  7.02499448E-01  3.48300643E-05
  1.49751050E-04  8.65282112E-03  4.23891431E-03 -1.72744777E-02  1.54944062E-01
  4.94988531E-02 -8.34048015E-03  6.79952828E-01  3.29772550E-02 -4.06609767E-02
  1.10924603E-02  7.11007361E-03 -1.34591544E-01 -3.62535053E-01 -4.98012572E-01
  2.88120737E-02 -6.73253436E-01 -3.43713248E-02 -8.51600349E-02  3.87067255E-02
 -5.95947797E-03  4.66553602E-05  1.33900862E-03  5.36792310E-02  1.12721706E-01
  2.28966184E-01  1.98314593E-02 -9.76348264E-03  5.35189871E-01 -4.68804287E-03
  1.66111846E-01 -3.40903374E-02 -2.47713390E-01 -1.12609206E-01 -1.50143560E-01
  1.46190112E-01 -3.91284381E-01 -2.16486518E-01  2.85262186E-01  4.59987756E-01
 -6.39623478E-01 -6.12546221E-02 -5.33239156E-02 -2.03572024E-04 -1.91382353E-03
 -9.80668813E-02 -7.07398111E-02 -7.87347671E-02  2.63325610E-02 -1.79059968E-01
 -1.37497344E-01 -3.15492686E-02  5.66346146E-01  4.34144741E-02 -1.91098627E-02
 -5.90165280E-02  1.58617299E-01 -1.48612653E-01 -7.91583210E-03  2.90919329E-01
  1.72765775E-01 -6.53307743E-01 -5.67431421E-01  2.16954466E-01  2.33289157E-01
 -3.11956074E-07 -6.22299492E-05  7.62020369E-03  7.25825061E-03 -1.15392898E-02
  9.10284560E-02  3.60931666E-02 -8.14623195E-03  4.40836364E-01  4.64671864E-02
 -4.27836197E-02  2.59063170E-02  3.73469507E-02  6.43113828E-02  3.14381788E-01
  5.18330505E-01 -1.14379249E-01  9.70960605E-01 -3.18611312E-02  1.67254531E-01
 -1.94438714E-02 -7.41097681E-02 -7.92832627E-04 -1.59533769E-03  2.07920599E-02
  3.60852118E-02  9.02993307E-02  8.78359108E-03  7.42118743E-03  2.79755108E-01
 -3.18621211E-03  1.62544604E-01 -8.35416748E-02 -5.44054503E-01  6.90826016E-02
 -1.37512003E-01 -4.65379010E-01  8.69445346E-01 -1.51978232E-01 -4.50068305E-01
 -4.18630919E-01  7.16890416E-01  3.25328540E-01  6.74359343E-01 -1.09639742E-03
  2.17251075E-03 -1.96549938E-02 -6.35899967E-02  1.68796289E-03  8.59866894E-03
 -6.54466492E-02 -6.25448031E-02 -3.20611014E-02  6.47662935E-01  9.12548379E-02
  9.43448474E-02  2.41577421E-01 -7.33536572E-03  8.20519385E-01 -5.93435224E-01
 -2.16471959E-01 -2.57461851E-01  4.54633417E-01  1.02585767E+00 -1.29438995E+00
 -4.20996643E-03  5.57840098E-04  4.42143438E-05  7.53188774E-02 -8.86173333E-02
 -3.01905603E-02  2.36817143E-01 -1.13707578E-02  1.57984818E-02 -9.12842311E-02
  1.86960315E-02  2.16729312E-01 -1.13507735E-01  9.33438529E-01 -4.95028121E-01
 -5.01882959E-01 -1.74135754E-01  1.40981244E-01  5.10111523E-01 -4.58874143E-02
  1.28786327E-01  3.49759155E-01 -6.88074230E-01  2.03157652E-03  1.35156874E-04
 -3.46884044E-02  2.56299838E-02 -4.12704275E-03  3.89026341E-02 -1.57675658E-02
 -9.59755677E-04 -1.01358348E-02 -1.36232179E-01  1.30669915E+00 -7.01834786E-01
 -8.15789366E-01  4.33995132E-01  3.21332763E-01 -1.15002398E-01 -8.32692280E-01
 -5.11835935E-01 -5.78641117E-01  2.48557720E-01  3.85655774E-02 -2.70705487E-01
  4.88409237E-04  8.94592980E-05  1.32711655E-01  1.78862749E-01  1.75099594E-01
  2.00946705E-03  2.13861284E-04  2.49638471E-01 -2.28005202E-03 -8.13306774E-02
  4.71769688E-03  1.38898206E-01 -3.39258686E-02  4.52367331E-01  5.50668930E-01
 -6.97089869E-01  7.61817323E-01  1.06599591E-01 -5.59596454E-01  4.65674053E-01
 -1.28785478E-01 -6.42984140E-01  1.70391973E-03  3.43455698E-03 -5.53338810E-02
 -2.87894240E-02  2.38375508E-02  1.60629931E-02 -6.15014371E-02  7.90421049E-02
  7.04518520E-03  2.53838310E-01  3.95076836E-01  2.09685974E+00 -6.49066221E-02
 -6.73471763E-01 -5.58520956E-02  2.36832042E-01  4.66505682E-02  1.44269299E-01
  6.48510217E-01 -9.89056424E-01 -8.57853196E-01 -9.72226779E-01
Beta MO coefficients                       R   N=         484
  9.96348422E-01 -2.03188181E-03 -1.25447563E-01 -1.71611059E-01  5.34509840E-02
  4.89693694E-02 -3.29612066E-02 -3.03217783E-02  1.46173376E-02 -5.99917641E-02
  5.90919920E-02  1.00371066E-02  2.73909784E-02 -3.30044165E-02  3.54453019E-02
 -8.91107917E-03  4.18258270E-02 -1.23963546E-02  3.80604971E-02 -1.40799762E-02
  1.01797379E-02  3.31946039E-02  1.99042353E-02  1.30763359E-04  2.68900163E-01
  3.94460854E-01 -1.34002854E-01 -1.23385677E-01  1.17004998E-01  8.23240026E-02
 -5.07678441E-02  1.41179175E-01 -1.07733570E-01 -3.10428127E-02 -1.53517556E-01
  1.46488366E-01 -4.05475973E-01  4.95894443E-02 -2.86756726E-01  5.01393036E-02
 -5.70434109E-01  1.75693272E-01  5.46206797E-01 -1.52396419E+00 -8.36263154E-03
  7.11294150E-04  2.77840123E-01  4.50022884E-01 -1.71809694E-01 -1.54726821E-01
  5.14007500E-02  9.41182954E-02 -2.06284021E-02  4.59194416E-01 -7.72627821E-01
 -1.81166183E-01  2.03152467E-01  4.30729248E-01  5.43837276E-01  4.80041145E-02
 -5.98134213E-02  1.33970574E-01  9.15421632E-01 -3.89728096E-01 -1.42117610E+00
  2.49286102E+00  1.59841355E-03  2.79386421E-06  4.74595027E-02  1.25570883E-01
  4.81225716E-01  1.73281387E-01 -1.34418232E-02 -2.58441139E-01  2.71003550E-02
  7.50810911E-03 -3.06363867E-01  1.45150191E-01 -3.50570452E-01 -4.24648995E-01
  9.01786528E-02  3.04250254E-01  2.92496132E-01  4.02560249E-01 -2.88048438E-01
 -4.55657980E-01  1.17983802E-02 -1.04740517E-01  8.54078050E-05  1.26149375E-04
  1.72544313E-02  1.38592509E-02 -6.37571877E-02  9.44978553E-02  1.11606285E-01
  4.67333897E-02  5.23164915E-01 -1.49597022E-02 -4.60651685E-02 -1.63106921E-01
 -2.44250730E-02 -6.54617919E-02 -1.08905211E-01  6.29299676E-01  1.82970923E-01
 -7.34941744E-01  3.73695550E-02 -7.94983593E-02 -1.72548031E-01 -1.28493446E-01
  1.41106951E-03  2.63451522E-04  9.29710627E-02 -4.80213840E-02 -3.75996999E-02
  1.05528781E-01 -3.59232759E-01 -9.38660141E-02  3.80530043E-02  5.19665774E-01
  1.01866187E-01 -8.57246948E-02 -2.94118849E-01 -4.45049653E-01 -5.18913624E-02
 -2.13697269E-01  1.36496804E-02 -5.68525828E-02  6.77943967E-01  1.07325889E-01
 -5.45089240E-02 -4.08236644E-01 -1.84390282E-03 -2.55020296E-05  3.33550754E-02
  6.85017945E-02  2.68932191E-01  1.14762312E-01 -2.55677924E-02 -1.49118735E-01
  4.19609564E-02  3.79433540E-02 -5.02706641E-01  2.60887855E-01 -5.34952860E-02
  5.33893940E-01 -1.44589551E-01 -3.58531864E-01 -6.74140251E-01 -6.93345464E-01
  4.10424210E-01  8.77965039E-01 -1.84500957E-01  6.47928295E-01 -2.80625528E-04
 -5.65734510E-04  2.09549562E-02  1.62305586E-02 -4.71753561E-02  7.65060277E-02
  6.72792610E-02  3.22215105E-02  5.61700716E-01 -1.91966632E-02 -8.06130378E-02
 -3.44088085E-01  4.59347750E-03  4.54824612E-04  1.02912907E-01 -5.67265180E-01
 -1.54494072E-01  9.09222669E-01 -4.62214333E-02  1.77251931E-01  3.54166050E-01
  3.28882257E-01 -2.05616759E-03  1.00915735E-03  5.45251066E-02  2.25505265E-02
 -2.32412810E-02  5.98836791E-02 -2.63403336E-01 -6.85281369E-02  7.54181002E-02
  6.32176909E-01  1.30465587E-01 -2.29949771E-01  3.37615531E-01  8.18781189E-01
  1.76041561E-01  4.96229306E-01 -2.82427835E-01  3.97158934E-01 -8.37217999E-01
 -3.95047441E-01 -8.50767434E-01  9.59386825E-01  1.97938770E-03  9.95786002E-01
 -1.60084510E-01  1.43753146E-01 -4.64473704E-02  7.63031069E-02 -2.24357158E-02
  1.24875480E-03 -1.61988811E-03  4.75760757E-02  3.21793904E-02  5.07086423E-02
 -2.02236456E-02  4.65301118E-02  4.07094279E-02  3.08962547E-02 -1.97750912E-03
 -4.15084268E-03  2.27100146E-02 -2.30441366E-02  4.05362611E-02  2.17305751E-02
  1.71315695E-04  2.22334552E-02  3.60035887E-01 -3.45508632E-01  1.16421920E-01
 -1.83501608E-01  8.21908655E-02 -7.72434696E-03  2.05672269E-02 -1.22735315E-01
 -7.28268226E-02 -6.95740005E-02  1.19773693E-01 -1.55498585E-01 -8.53163909E-02
 -3.12000521E-01 -1.69272512E-02  5.59088727E-02 -3.33784240E-01  1.45764230E-01
 -1.64281704E+00 -3.91742167E-01  7.30079584E-04 -8.73955327E-03  3.14025152E-01
 -3.55826680E-01  1.62531801E-01 -3.17517760E-01  2.43393034E-02  9.37923901E-03
 -1.06959516E-01 -3.57040771E-01 -3.76077757E-01 -1.01805191E+00 -1.01219950E-01
 -4.93046429E-01 -4.12424239E-01  2.76350960E-02  2.40270825E-02 -4.24594245E-02
  5.66049968E-01 -1.33142779E-01  3.05290952E+00  4.20057831E-01  2.77654216E-05
  1.50164225E-04  9.43619328E-03  4.35553048E-03  2.16172318E-01  9.47474083E-02
 -1.31138105E-01  6.48720026E-01 -2.06384672E-02  1.34267167E-02 -3.15053738E-02
  1.18772165E-02  1.25703065E-01 -4.34871516E-01  5.04965138E-01  1.31826432E-01
 -5.85164911E-01 -9.28071685E-02 -1.53105848E-01  7.05563568E-02  3.68120848E-02
 -1.09969073E-02  4.47304820E-05  1.38634005E-03  7.34814208E-02 -8.86924164E-02
 -9.03904261E-02  4.20771843E-01  3.00501254E-01  1.57666796E-02 -2.88586147E-01
  8.84196341E-02 -2.68198932E-02 -2.10143588E-01 -8.50015005E-02  1.82555579E-02
  2.89103478E-01  3.31666843E-01  3.57394336E-01  2.12905914E-01 -2.31559890E-02
  7.76256889E-01 -6.71710173E-02 -5.89250419E-02 -2.52862514E-04 -1.86068038E-03
 -1.21273791E-01 -3.23579249E-02  1.60703130E-01 -2.21254830E-01  3.94801549E-01
  5.77064125E-02  2.49372413E-02  4.76529475E-01  7.34960613E-02 -2.14928585E-03
 -1.34949421E-01 -1.81275164E-01  1.63241588E-01 -5.00218683E-01  3.42925839E-01
 -4.32495493E-01 -4.42489462E-01  5.22873401E-02  2.42855818E-01  1.97715398E-01
  4.59335663E-05 -6.47435202E-05  1.05394082E-02 -4.87820682E-04  1.28846078E-01
  6.06253421E-02 -8.93231137E-02  4.18345408E-01 -1.39612592E-02  2.93912261E-02
 -3.34414719E-02  2.68240275E-02 -3.43547829E-02  4.16831279E-01 -5.54813532E-01
 -1.17459900E-01  8.67926255E-01  1.95728304E-01  1.90023404E-01 -1.92818847E-01
 -2.67482252E-02 -6.48674936E-02 -6.33097744E-04 -1.47136534E-03  3.29807278E-02
 -3.48622863E-02 -3.52529317E-02  2.09522185E-01  1.63026558E-01  7.93025825E-03
 -2.60522185E-01  9.49967244E-02 -8.41774939E-02 -5.17034667E-01  2.54092498E-01
 -4.11389759E-01 -8.83186278E-01 -8.53564750E-02 -5.00551412E-01 -1.26012541E-01
 -3.42424778E-02 -7.95362458E-01  3.86508307E-01  6.27081725E-01 -1.03619791E-03
  2.35232816E-03 -4.63894569E-02  1.80627657E-02  6.83668956E-02 -8.30587785E-02
  2.41751434E-01  2.37331491E-02  5.37164727E-02  5.33683962E-01  1.33283687E-01
  1.25894798E-01  1.47538121E-02  8.63823027E-01  3.73375699E-01  6.74589628E-01
 -5.52025202E-01  6.03978885E-01  4.47332807E-01 -5.18681902E-01 -1.30036851E+00
  1.30607287E-01  7.85789624E-04 -5.12280947E-05  7.19204524E-02  1.61911117E-01
  2.41864889E-01  5.12431257E-02  5.67792942E-02 -1.24840154E-01 -3.28861575E-03
 -3.03237190E-03  1.91038433E-01 -1.08090097E-01  1.16070162E+00 -1.43851898E-01
  2.46612027E-01 -8.78754799E-02  4.74239841E-01  2.79327075E-02  2.15587813E-01
 -1.81152307E-01  2.81255639E-01 -6.72681835E-01  1.72241955E-03  1.16419421E-04
 -1.91554671E-02 -1.61649927E-02  6.34484588E-02  4.51570125E-03  2.49298233E-02
 -3.28551778E-02 -4.65538165E-03 -2.53888404E-01  1.30714347E+00 -7.41235919E-01
 -9.91947754E-01 -1.08802876E-01 -6.69370896E-02  2.81759504E-01 -3.95023548E-01
  4.38465228E-01 -7.24753920E-01 -5.08953995E-01  3.49400769E-02 -2.77512285E-01
  3.94393265E-04 -1.20538569E-04  1.78226107E-01 -1.05763036E-01 -1.16700722E-01
  3.15976377E-01  7.25237926E-02 -2.61346379E-03 -2.42132140E-03 -8.35676379E-02
 -1.91795681E-03  1.11598176E-01 -3.70438118E-01  6.62115454E-01  9.13340958E-01
 -3.73346467E-01  3.89981186E-02 -3.16301802E-01  1.30610208E-01 -6.93731119E-01
 -1.99375787E-01 -5.87587476E-01  1.31987833E-03  3.39640756E-03 -6.95810325E-02
  7.95127803E-03 -8.49996953E-03  8.72274661E-02  1.11786024E-01  2.61615357E-02
  1.43939763E-01  7.55940110E-02  4.38251564E-01  2.14239072E+00  2.82218484E-01
 -1.82758499E-01 -2.25174329E-01  3.02392170E-01  3.27641303E-01 -2.66903974E-01
 -2.15054844E-02  1.12197963E+00 -9.51183632E-01 -9.05603455E-01
Total SCF Density                          R   N=         253
  2.09309969E+00 -2.15200285E-01 -2.85598761E-01  3.05398985E-02 -8.46790543E-03
  1.76727230E-02  8.48758719E-03 -1.13080164E-02 -1.04252413E-02 -7.02823610E-03
  2.13685682E-02  3.68272654E-02 -5.93518033E-04  2.34083261E-02  9.68004409E-03
 -1.06703349E-03  7.69434359E-03 -1.42156324E-02 -2.95882578E-02  2.47684836E-02
  6.20721378E-03  1.67742622E-02  6.18555849E-01  6.32175539E-01 -8.94082635E-02
  1.47950022E-02 -6.79683095E-02 -4.33355375E-02  2.19670052E-02 -7.98172152E-03
  1.91829998E-02 -5.30958160E-02 -8.62557409E-02 -1.36357224E-03 -4.36159090E-02
 -1.49767414E-03  6.27321384E-04 -1.49928541E-02  4.01762440E-02  6.38223006E-02
 -4.97891440E-02 -1.53540131E-02 -2.47978295E-02  6.74874976E-01 -1.11526777E-01
  4.72296681E-02  1.04862626E-02 -5.44302278E-02  4.05935905E-02  5.07449053E-02
  4.44778770E-02 -1.15727808E-01 -1.44521911E-01  4.03314393E-03 -1.14364284E-01
 -2.95211002E-02  5.04130321E-03 -5.10595008E-02  2.78467814E-02  5.18246526E-02
 -5.65130092E-02 -5.28469010E-02 -4.10134518E-02  7.56229776E-01 -2.45737610E-02
  4.22527865E-02  4.09784659E-01 -1.65129468E-02  4.14308693E-02  1.65208990E-03
  8.69315199E-05 -1.46811994E-02 -9.25820173E-02  2.15015258E-02  2.15199126E-02
 -7.08412764E-02  1.91488796E-02  2.05217494E-02  3.53478010E-01  5.61919722E-02
 -1.42147873E-02  4.86809366E-03  5.85313798E-01 -1.75140237E-02 -1.44635826E-02
  3.15166675E-01 -2.69216526E-03  1.04555938E-02 -2.09604501E-02 -5.93849024E-02
  1.23071929E-02  1.56926612E-02  4.98104225E-02  7.63567761E-03 -1.37955197E-02
  5.08710135E-02 -1.15919649E-02  9.58598924E-04  6.28353631E-02  1.51914534E-02
  6.43744774E-01  3.97459452E-02 -3.67300685E-04  4.00341039E-01  1.28010845E-02
 -5.76958763E-02 -9.90199272E-02 -2.93432727E-02 -1.24761887E-01 -2.98256044E-01
 -1.21447678E-02 -6.79289087E-02 -1.42857499E-01 -3.09856615E-02 -2.08257854E-02
  3.63215858E-02 -1.04020639E-01  2.23692131E-01 -9.00081098E-03  3.36549595E-02
  1.99982306E-03 -3.93975229E-03 -1.55203172E-02 -4.75810370E-02  1.59457444E-02
 -4.01044698E-03 -3.64800686E-02  1.23469932E-02  3.98975427E-03  1.91502622E-01
  2.92704385E-02 -1.94662476E-05  3.97159491E-04  1.71693230E-01  4.71163997E-03
  5.51950565E-03 -1.46962526E-02 -3.87286392E-02  1.09796594E-02  8.72065032E-03
  2.22205054E-02  7.16098607E-03 -6.92621305E-03  2.66311175E-02 -6.13755403E-03
 -1.39666435E-03  3.75856985E-02  7.99353134E-03  2.59716143E-01  3.09218578E-02
 -8.74907721E-02 -1.08611368E-01 -2.08080448E-02 -1.16017267E-01 -1.91124410E-01
 -9.56815889E-03 -6.04772875E-02 -9.01217605E-02 -6.38974303E-03 -1.56297791E-02
 -7.19654408E-03 -6.74204558E-02  2.09385865E+00 -2.15595750E-01 -2.89377550E-01
  5.31098387E-04  1.81129253E-02 -2.57399122E-02 -1.23321488E-03  9.79391665E-03
  4.93139384E-03  3.74651341E-03 -5.53093474E-03 -3.91321280E-02  3.38859374E-02
  6.11537394E-01  6.42377606E-01 -1.24984212E-02 -2.80295983E-02  7.22657840E-02
 -5.57174868E-03 -2.58264937E-02  9.35794516E-03 -6.21807772E-03  1.63079314E-02
  8.89490684E-02 -5.70902566E-02  7.21594608E-01  2.20790916E-02 -1.67672597E-01
  1.25720080E-01  1.62720626E-02 -9.47073756E-02  2.01970191E-02 -1.53809139E-02
  2.11391673E-02 -1.05893921E-02 -7.25095903E-02  9.83104934E-01 -1.66192562E-02
 -2.67245767E-02  6.32799870E-01 -7.84309869E-03 -3.34100715E-02 -5.51812473E-02
 -1.24472614E-02 -9.70314834E-03  1.06815433E-02  6.43990493E-01 -9.65567443E-02
 -1.19537656E-02  3.21671486E-01 -1.34625082E-02  6.54983126E-03  3.70639181E-03
  3.88761448E-01  1.08097860E-01  3.23216237E-01 -2.22995158E-02 -4.12317769E-02
  1.59060123E-01  3.90209400E-02  2.62015740E-02 -1.52067642E-01  3.90762200E-02
  4.07615433E-01 -5.95730305E-03 -2.42245142E-02 -4.12932807E-02 -9.23567190E-03
 -4.08073423E-03  5.21349625E-03  1.62385429E-01 -2.73388886E-03  9.55145508E-03
  2.26120788E-03  1.86574413E-01  5.61603999E-02  8.68004090E-02  3.14526212E-02
  1.05994143E-02 -5.61555640E-02  2.51550450E-02  1.90553621E-01  2.26448455E-02
 -1.84111073E-02  4.55297991E-03  1.01253234E-02 -6.67006087E-03  5.52331033E-03
  3.04270225E-01  3.47678393E-02  4.05907751E-02
Spin SCF Density                           R   N=         253
  2.77446587E-03 -1.28943521E-02 -2.14846727E-03 -2.61302543E-03  8.20047219E-03
 -1.39837880E-02 -6.67585790E-03  4.01654199E-03 -9.80426545E-03 -1.66208329E-03
  3.33855606E-03  7.89233163E-03  1.52123479E-03  5.38723005E-04  2.65913356E-03
  1.08811641E-03 -2.64575340E-04  6.21624094E-04  7.75941827E-03  3.40845241E-03
 -1.16712629E-05  7.50908066E-04  5.46537291E-02  1.63001208E-02  3.36823446E-03
 -3.30012058E-02  3.53441483E-02  1.56875837E-02 -1.69088935E-02  2.64564628E-02
  2.95314089E-03 -6.19949513E-03 -1.64807069E-02 -4.68214636E-03 -6.47197407E-03
 -2.41569207E-02 -3.14288827E-03 -2.40015729E-03 -1.17386416E-02 -1.78887383E-02
 -9.10840475E-03  2.37548267E-03 -4.92278607E-03 -1.46158641E-02  1.81190644E-02
  1.22332826E-02  7.64037136E-02  2.39714020E-02  8.82022675E-03  5.06368779E-02
  1.23892000E-02 -2.86235717E-02 -4.54101268E-02 -1.01610102E-02 -1.00808172E-02
  2.29432922E-03 -6.90593636E-03 -3.54540892E-03  5.81598545E-03 -1.72249964E-02
 -4.46957479E-03 -5.96948230E-03 -1.83214348E-03  6.30294974E-02  2.60773577E-02
 -1.30758995E-02  1.30501571E-02  1.47760462E-02 -1.02884825E-02 -9.65331244E-04
  2.44505388E-03  3.98566369E-03 -3.67650395E-03 -5.79841373E-03  3.60920257E-03
 -2.90388308E-03 -5.42580701E-03  2.14364344E-03 -7.55716100E-03 -1.68787006E-02
 -1.15959838E-03  3.95018501E-03  5.29064571E-01  4.48280562E-02  1.47347623E-02
  2.75489782E-01  4.57199491E-02 -3.70871793E-03  8.08888456E-03  1.40686595E-02
 -9.84308447E-03 -1.43984506E-01  2.36827409E-02 -6.90605382E-03 -9.51916801E-02
  2.02060663E-02  1.58916149E-03  6.81073825E-03 -3.09266110E-02 -2.75956296E-02
  3.21023179E-01 -1.02337034E-02  3.19883124E-02  1.75875837E-01  2.03617007E-02
 -5.27520620E-02 -9.30979139E-02 -6.85350733E-03 -2.36889856E-02  7.44547373E-02
 -2.89646927E-03 -5.66164096E-03  6.83216126E-02 -4.08018720E-03 -3.25996768E-03
 -3.08267947E-02 -2.41478935E-02 -4.69482523E-03  8.24052489E-03 -8.23051629E-03
 -2.63416979E-04  7.78009449E-04  1.78271899E-03 -5.85988866E-05 -4.69598345E-03
  1.02574346E-02 -1.34193744E-04 -3.50695339E-03  6.33816894E-03 -1.16553483E-02
 -1.09176523E-02 -4.24367627E-03  2.02418116E-03  1.43000528E-01  3.01980375E-02
 -4.42913680E-03  9.95627190E-03  1.96911960E-02 -7.81822267E-03 -1.05840924E-01
  2.05256291E-02 -5.32487659E-03 -6.50120058E-02  1.30913462E-02  9.77080773E-04
  3.99018904E-03 -3.53997368E-02 -2.02203799E-02  9.63353535E-02  1.69482705E-02
 -4.15850108E-02 -6.70963295E-02 -3.50637410E-03 -1.41622469E-02  7.34247302E-02
 -1.68615342E-03 -2.26334608E-03  5.78480053E-02 -3.62488020E-03 -1.76636261E-03
 -2.72806280E-02 -8.55954543E-03  1.11837477E-03 -2.74192919E-03 -4.50920863E-03
  1.18549205E-04  5.21320535E-03  1.47062898E-02  7.46296122E-05  5.35551670E-03
  1.00197092E-02 -2.17082239E-03 -8.49464064E-04 -7.22368001E-03 -6.59760697E-03
  4.46075830E-03  1.25323425E-02 -2.73301230E-04 -1.59730161E-02 -4.53120829E-02
 -1.00450213E-04 -1.51721145E-02 -3.06354016E-02  5.10696660E-03  1.20330361E-03
  1.87100499E-02  1.43765788E-02  1.51629653E-02  3.36773669E-03  4.74724753E-03
 -3.42179464E-02  2.42110314E-03 -3.82677899E-03 -2.49531956E-02  8.16957875E-03
  3.31102297E-03  3.73163918E-02  2.91300224E-02 -4.59597119E-03  4.69901191E-04
 -2.30294562E-02 -7.94281973E-04 -1.54358343E-04 -1.38981275E-02  4.63617615E-03
  8.93375192E-03  8.45745929E-04 -5.55409998E-03  6.59169859E-02 -1.08317371E-01
 -8.23414269E-04  2.97200748E-02 -6.72319388E-02 -4.88581169E-03 -2.62311334E-03
  1.32986215E-02 -2.32264101E-02 -1.76254530E-01 -1.21122499E-02 -6.10897442E-02
 -1.03369002E-01 -1.85427691E-02 -1.37766124E-02  4.68343402E-03 -2.72276386E-02
  8.56299517E-04 -5.18042268E-04 -7.44466198E-03  3.40467811E-03  6.19773070E-03
 -1.03749637E-03 -3.61672148E-03  1.42083570E-02 -3.79835919E-02 -4.85578208E-03
 -2.62598062E-03  3.20285643E-03 -1.26984617E-02 -5.93289187E-02 -1.38079051E-02
 -9.01035688E-03 -2.29306330E-03 -2.12395032E-02 -3.20900117E-02 -1.15569184E-02
  5.38062874E-03  9.94881238E-04 -2.63122960E-03  4.90480965E-03 -4.54371160E-04
 -1.90841664E-02 -1.19332583E-02 -1.09681088E-02